     Data was extracted at:  "     19:22:22  16/11/2022     "
VARIABLES =   X,   Y,   Z,  P,   T,   Sg,   Ss,   XNaCl,   YH2Og,    XCO2aq,   PCAP,   K_red,  Dg,   Dl,
ZONE T= "      1.00yr"  F=POINT
 0.1500000E+00 0.0000000E+00 -.5000000E+01 0.1510200E+08 0.6000000E+02 0.0000000E+00 0.0000000E+00 0.6000000E-01 0.1000000E+01 0.8224300E-23 0.0000000E+00 0.1000000E+01 0.0000000E+00 0.1029550E+04
 0.1500000E+00 0.0000000E+00 -.1500000E+02 0.1520300E+08 0.6033000E+02 0.0000000E+00 0.0000000E+00 0.6000000E-01 0.1000000E+01 0.1148800E-18 0.0000000E+00 0.1000000E+01 0.0000000E+00 0.1029430E+04
 0.1500000E+00 0.0000000E+00 -.2500000E+02 0.1530400E+08 0.6067000E+02 0.0000000E+00 0.0000000E+00 0.6000000E-01 0.1000000E+01 0.7320200E-15 0.0000000E+00 0.1000000E+01 0.0000000E+00 0.1029300E+04
 0.1500000E+00 0.0000000E+00 -.3500000E+02 0.1540500E+08 0.6100000E+02 0.0000000E+00 0.0000000E+00 0.6000000E-01 0.1000000E+01 0.2694500E-11 0.0000000E+00 0.1000000E+01 0.0000000E+00 0.1029180E+04
 0.1500000E+00 0.0000000E+00 -.4500000E+02 0.1550600E+08 0.6133000E+02 0.0000000E+00 0.0000000E+00 0.6000000E-01 0.1000000E+01 0.5998400E-08 0.0000000E+00 0.1000000E+01 0.0000000E+00 0.1029060E+04
 0.1500000E+00 0.0000000E+00 -.5500000E+02 0.1560800E+08 0.6167000E+02 0.0000000E+00 0.0000000E+00 0.6000000E-01 0.1000000E+01 0.7708900E-05 0.0000000E+00 0.1000000E+01 0.0000000E+00 0.1028930E+04
 0.1500000E+00 0.0000000E+00 -.6500000E+02 0.1570900E+08 0.6200000E+02 0.0000000E+00 0.0000000E+00 0.5967100E-01 0.1000000E+01 0.5468500E-02 0.0000000E+00 0.1000000E+01 0.0000000E+00 0.1029850E+04
 0.1500000E+00 0.0000000E+00 -.7500000E+02 0.1582400E+08 0.6233000E+02 0.1327600E+00 0.0000000E+00 0.5773800E-01 0.3291000E-02 0.3757100E-01 -.1130600E+05 0.1000000E+01 0.6121000E+03 0.1035930E+04
 0.1500000E+00 0.0000000E+00 -.8500000E+02 0.1593500E+08 0.6267000E+02 0.2294800E+00 0.0000000E+00 0.5773500E-01 0.3324700E-02 0.3758000E-01 -.1695600E+05 0.1000000E+01 0.6127700E+03 0.1035810E+04
 0.1500000E+00 0.0000000E+00 -.9500000E+02 0.1604700E+08 0.6300000E+02 0.3748600E+00 0.0000000E+00 0.5773700E-01 0.3358600E-02 0.3758700E-01 -.2689200E+05 0.1000000E+01 0.6134200E+03 0.1035690E+04
 0.5033000E+00 0.0000000E+00 -.5000000E+01 0.1510200E+08 0.6000000E+02 0.0000000E+00 0.0000000E+00 0.6000000E-01 0.1000000E+01 0.8196000E-23 0.0000000E+00 0.1000000E+01 0.0000000E+00 0.1029550E+04
 0.5033000E+00 0.0000000E+00 -.1500000E+02 0.1520300E+08 0.6033000E+02 0.0000000E+00 0.0000000E+00 0.6000000E-01 0.1000000E+01 0.1141100E-18 0.0000000E+00 0.1000000E+01 0.0000000E+00 0.1029430E+04
 0.5033000E+00 0.0000000E+00 -.2500000E+02 0.1530400E+08 0.6067000E+02 0.0000000E+00 0.0000000E+00 0.6000000E-01 0.1000000E+01 0.7248300E-15 0.0000000E+00 0.1000000E+01 0.0000000E+00 0.1029300E+04
 0.5033000E+00 0.0000000E+00 -.3500000E+02 0.1540500E+08 0.6100000E+02 0.0000000E+00 0.0000000E+00 0.6000000E-01 0.1000000E+01 0.2661300E-11 0.0000000E+00 0.1000000E+01 0.0000000E+00 0.1029180E+04
 0.5033000E+00 0.0000000E+00 -.4500000E+02 0.1550600E+08 0.6133000E+02 0.0000000E+00 0.0000000E+00 0.6000000E-01 0.1000000E+01 0.5916000E-08 0.0000000E+00 0.1000000E+01 0.0000000E+00 0.1029060E+04
 0.5033000E+00 0.0000000E+00 -.5500000E+02 0.1560800E+08 0.6167000E+02 0.0000000E+00 0.0000000E+00 0.6000000E-01 0.1000000E+01 0.7605100E-05 0.0000000E+00 0.1000000E+01 0.0000000E+00 0.1028930E+04
 0.5033000E+00 0.0000000E+00 -.6500000E+02 0.1570900E+08 0.6200000E+02 0.0000000E+00 0.0000000E+00 0.5967500E-01 0.1000000E+01 0.5400200E-02 0.0000000E+00 0.1000000E+01 0.0000000E+00 0.1029840E+04
 0.5033000E+00 0.0000000E+00 -.7500000E+02 0.1582400E+08 0.6233000E+02 0.1325600E+00 0.0000000E+00 0.5773800E-01 0.3291000E-02 0.3757100E-01 -.1129400E+05 0.1000000E+01 0.6120900E+03 0.1035930E+04
 0.5033000E+00 0.0000000E+00 -.8500000E+02 0.1593500E+08 0.6267000E+02 0.2293300E+00 0.0000000E+00 0.5773400E-01 0.3324700E-02 0.3758000E-01 -.1694700E+05 0.1000000E+01 0.6127700E+03 0.1035810E+04
 0.5033000E+00 0.0000000E+00 -.9500000E+02 0.1604700E+08 0.6300000E+02 0.4029200E+00 0.0000000E+00 0.5774700E-01 0.3358600E-02 0.3758600E-01 -.2921500E+05 0.1000000E+01 0.6134200E+03 0.1035700E+04
 0.9822000E+00 0.0000000E+00 -.5000000E+01 0.1510200E+08 0.6000000E+02 0.0000000E+00 0.0000000E+00 0.6000000E-01 0.1000000E+01 0.7921800E-23 0.0000000E+00 0.1000000E+01 0.0000000E+00 0.1029550E+04
 0.9822000E+00 0.0000000E+00 -.1500000E+02 0.1520300E+08 0.6033000E+02 0.0000000E+00 0.0000000E+00 0.6000000E-01 0.1000000E+01 0.1098800E-18 0.0000000E+00 0.1000000E+01 0.0000000E+00 0.1029430E+04
 0.9822000E+00 0.0000000E+00 -.2500000E+02 0.1530400E+08 0.6067000E+02 0.0000000E+00 0.0000000E+00 0.6000000E-01 0.1000000E+01 0.6950700E-15 0.0000000E+00 0.1000000E+01 0.0000000E+00 0.1029300E+04
 0.9822000E+00 0.0000000E+00 -.3500000E+02 0.1540500E+08 0.6100000E+02 0.0000000E+00 0.0000000E+00 0.6000000E-01 0.1000000E+01 0.2542700E-11 0.0000000E+00 0.1000000E+01 0.0000000E+00 0.1029180E+04
 0.9822000E+00 0.0000000E+00 -.4500000E+02 0.1550600E+08 0.6133000E+02 0.0000000E+00 0.0000000E+00 0.6000000E-01 0.1000000E+01 0.5643900E-08 0.0000000E+00 0.1000000E+01 0.0000000E+00 0.1029060E+04
 0.9822000E+00 0.0000000E+00 -.5500000E+02 0.1560800E+08 0.6167000E+02 0.0000000E+00 0.0000000E+00 0.6000000E-01 0.1000000E+01 0.7272600E-05 0.0000000E+00 0.1000000E+01 0.0000000E+00 0.1028930E+04
 0.9822000E+00 0.0000000E+00 -.6500000E+02 0.1570900E+08 0.6200000E+02 0.0000000E+00 0.0000000E+00 0.5968800E-01 0.1000000E+01 0.5184800E-02 0.0000000E+00 0.1000000E+01 0.0000000E+00 0.1029800E+04
 0.9822000E+00 0.0000000E+00 -.7500000E+02 0.1582400E+08 0.6233000E+02 0.1318900E+00 0.0000000E+00 0.5773800E-01 0.3291000E-02 0.3757100E-01 -.1125500E+05 0.1000000E+01 0.6120900E+03 0.1035930E+04
 0.9822000E+00 0.0000000E+00 -.8500000E+02 0.1593500E+08 0.6267000E+02 0.2287000E+00 0.0000000E+00 0.5774900E-01 0.3324700E-02 0.3757800E-01 -.1690800E+05 0.1000000E+01 0.6127700E+03 0.1035820E+04
 0.9822000E+00 0.0000000E+00 -.9500000E+02 0.1604700E+08 0.6300000E+02 0.4038400E+00 0.0000000E+00 0.1063900E+00 0.3254400E-02 0.2977300E-01 -.2929400E+05 0.1000000E+01 0.6134200E+03 0.1068650E+04
 0.1631000E+01 0.0000000E+00 -.5000000E+01 0.1510200E+08 0.6000000E+02 0.0000000E+00 0.0000000E+00 0.6000000E-01 0.1000000E+01 0.6965700E-23 0.0000000E+00 0.1000000E+01 0.0000000E+00 0.1029550E+04
 0.1631000E+01 0.0000000E+00 -.1500000E+02 0.1520300E+08 0.6033000E+02 0.0000000E+00 0.0000000E+00 0.6000000E-01 0.1000000E+01 0.9663100E-19 0.0000000E+00 0.1000000E+01 0.0000000E+00 0.1029430E+04
 0.1631000E+01 0.0000000E+00 -.2500000E+02 0.1530400E+08 0.6067000E+02 0.0000000E+00 0.0000000E+00 0.6000000E-01 0.1000000E+01 0.6110500E-15 0.0000000E+00 0.1000000E+01 0.0000000E+00 0.1029300E+04
 0.1631000E+01 0.0000000E+00 -.3500000E+02 0.1540500E+08 0.6100000E+02 0.0000000E+00 0.0000000E+00 0.6000000E-01 0.1000000E+01 0.2236800E-11 0.0000000E+00 0.1000000E+01 0.0000000E+00 0.1029180E+04
 0.1631000E+01 0.0000000E+00 -.4500000E+02 0.1550600E+08 0.6133000E+02 0.0000000E+00 0.0000000E+00 0.6000000E-01 0.1000000E+01 0.4985700E-08 0.0000000E+00 0.1000000E+01 0.0000000E+00 0.1029060E+04
 0.1631000E+01 0.0000000E+00 -.5500000E+02 0.1560800E+08 0.6167000E+02 0.0000000E+00 0.0000000E+00 0.6000000E-01 0.1000000E+01 0.6496700E-05 0.0000000E+00 0.1000000E+01 0.0000000E+00 0.1028930E+04
 0.1631000E+01 0.0000000E+00 -.6500000E+02 0.1570900E+08 0.6200000E+02 0.0000000E+00 0.0000000E+00 0.5971800E-01 0.1000000E+01 0.4692200E-02 0.0000000E+00 0.1000000E+01 0.0000000E+00 0.1029710E+04
 0.1631000E+01 0.0000000E+00 -.7500000E+02 0.1582400E+08 0.6233000E+02 0.1302800E+00 0.0000000E+00 0.5773800E-01 0.3290900E-02 0.3757100E-01 -.1116100E+05 0.1000000E+01 0.6120900E+03 0.1035930E+04
 0.1631000E+01 0.0000000E+00 -.8500000E+02 0.1593500E+08 0.6267000E+02 0.2270500E+00 0.0000000E+00 0.5773600E-01 0.3324700E-02 0.3758000E-01 -.1680900E+05 0.1000000E+01 0.6127700E+03 0.1035810E+04
 0.1631000E+01 0.0000000E+00 -.9500000E+02 0.1604600E+08 0.6300000E+02 0.3736900E+00 0.0000000E+00 0.5811000E-01 0.3357700E-02 0.3752000E-01 -.2680000E+05 0.1000000E+01 0.6133800E+03 0.1035930E+04
 0.2511000E+01 0.0000000E+00 -.5000000E+01 0.1510200E+08 0.6000000E+02 0.0000000E+00 0.0000000E+00 0.6000000E-01 0.1000000E+01 0.5641100E-23 0.0000000E+00 0.1000000E+01 0.0000000E+00 0.1029550E+04
 0.2511000E+01 0.0000000E+00 -.1500000E+02 0.1520300E+08 0.6033000E+02 0.0000000E+00 0.0000000E+00 0.6000000E-01 0.1000000E+01 0.7791100E-19 0.0000000E+00 0.1000000E+01 0.0000000E+00 0.1029430E+04
 0.2511000E+01 0.0000000E+00 -.2500000E+02 0.1530400E+08 0.6067000E+02 0.0000000E+00 0.0000000E+00 0.6000000E-01 0.1000000E+01 0.4886900E-15 0.0000000E+00 0.1000000E+01 0.0000000E+00 0.1029300E+04
 0.2511000E+01 0.0000000E+00 -.3500000E+02 0.1540500E+08 0.6100000E+02 0.0000000E+00 0.0000000E+00 0.6000000E-01 0.1000000E+01 0.1771900E-11 0.0000000E+00 0.1000000E+01 0.0000000E+00 0.1029180E+04
 0.2511000E+01 0.0000000E+00 -.4500000E+02 0.1550600E+08 0.6133000E+02 0.0000000E+00 0.0000000E+00 0.6000000E-01 0.1000000E+01 0.3929400E-08 0.0000000E+00 0.1000000E+01 0.0000000E+00 0.1029060E+04
 0.2511000E+01 0.0000000E+00 -.5500000E+02 0.1560800E+08 0.6167000E+02 0.0000000E+00 0.0000000E+00 0.6000000E-01 0.1000000E+01 0.5165600E-05 0.0000000E+00 0.1000000E+01 0.0000000E+00 0.1028930E+04
 0.2511000E+01 0.0000000E+00 -.6500000E+02 0.1570900E+08 0.6200000E+02 0.0000000E+00 0.0000000E+00 0.5977100E-01 0.1000000E+01 0.3798600E-02 0.0000000E+00 0.1000000E+01 0.0000000E+00 0.1029530E+04
 0.2511000E+01 0.0000000E+00 -.7500000E+02 0.1582400E+08 0.6233000E+02 0.1267500E+00 0.0000000E+00 0.5773800E-01 0.3290900E-02 0.3757100E-01 -.1095500E+05 0.1000000E+01 0.6120800E+03 0.1035930E+04
 0.2511000E+01 0.0000000E+00 -.8500000E+02 0.1593500E+08 0.6267000E+02 0.2240500E+00 0.0000000E+00 0.5773600E-01 0.3324700E-02 0.3758000E-01 -.1662900E+05 0.1000000E+01 0.6127600E+03 0.1035810E+04
 0.2511000E+01 0.0000000E+00 -.9500000E+02 0.1604400E+08 0.6300000E+02 0.3474700E+00 0.0000000E+00 0.5774300E-01 0.3358300E-02 0.3758500E-01 -.2478400E+05 0.1000000E+01 0.6133400E+03 0.1035690E+04
 0.3703000E+01 0.0000000E+00 -.5000000E+01 0.1510200E+08 0.6000000E+02 0.0000000E+00 0.0000000E+00 0.6000000E-01 0.1000000E+01 0.3853900E-23 0.0000000E+00 0.1000000E+01 0.0000000E+00 0.1029550E+04
 0.3703000E+01 0.0000000E+00 -.1500000E+02 0.1520300E+08 0.6033000E+02 0.0000000E+00 0.0000000E+00 0.6000000E-01 0.1000000E+01 0.5268100E-19 0.0000000E+00 0.1000000E+01 0.0000000E+00 0.1029430E+04
 0.3703000E+01 0.0000000E+00 -.2500000E+02 0.1530400E+08 0.6067000E+02 0.0000000E+00 0.0000000E+00 0.6000000E-01 0.1000000E+01 0.3241000E-15 0.0000000E+00 0.1000000E+01 0.0000000E+00 0.1029300E+04
 0.3703000E+01 0.0000000E+00 -.3500000E+02 0.1540500E+08 0.6100000E+02 0.0000000E+00 0.0000000E+00 0.6000000E-01 0.1000000E+01 0.1143900E-11 0.0000000E+00 0.1000000E+01 0.0000000E+00 0.1029180E+04
 0.3703000E+01 0.0000000E+00 -.4500000E+02 0.1550600E+08 0.6133000E+02 0.0000000E+00 0.0000000E+00 0.6000000E-01 0.1000000E+01 0.2472900E-08 0.0000000E+00 0.1000000E+01 0.0000000E+00 0.1029060E+04
 0.3703000E+01 0.0000000E+00 -.5500000E+02 0.1560800E+08 0.6167000E+02 0.0000000E+00 0.0000000E+00 0.6000000E-01 0.1000000E+01 0.3238700E-05 0.0000000E+00 0.1000000E+01 0.0000000E+00 0.1028930E+04
 0.3703000E+01 0.0000000E+00 -.6500000E+02 0.1570900E+08 0.6200000E+02 0.0000000E+00 0.0000000E+00 0.5985300E-01 0.1000000E+01 0.2438200E-02 0.0000000E+00 0.1000000E+01 0.0000000E+00 0.1029270E+04
 0.3703000E+01 0.0000000E+00 -.7500000E+02 0.1582300E+08 0.6233000E+02 0.1192700E+00 0.0000000E+00 0.5773800E-01 0.3290800E-02 0.3757100E-01 -.1051600E+05 0.1000000E+01 0.6120600E+03 0.1035930E+04
 0.3703000E+01 0.0000000E+00 -.8500000E+02 0.1593500E+08 0.6267000E+02 0.2190900E+00 0.0000000E+00 0.5773600E-01 0.3324600E-02 0.3757900E-01 -.1633200E+05 0.1000000E+01 0.6127500E+03 0.1035810E+04
 0.3703000E+01 0.0000000E+00 -.9500000E+02 0.1604300E+08 0.6300000E+02 0.3222400E+00 0.0000000E+00 0.5773700E-01 0.3358100E-02 0.3758500E-01 -.2295900E+05 0.1000000E+01 0.6132900E+03 0.1035690E+04
 0.5319000E+01 0.0000000E+00 -.5000000E+01 0.1510200E+08 0.6000000E+02 0.0000000E+00 0.0000000E+00 0.6000000E-01 0.1000000E+01 0.2190500E-23 0.0000000E+00 0.1000000E+01 0.0000000E+00 0.1029550E+04
 0.5319000E+01 0.0000000E+00 -.1500000E+02 0.1520300E+08 0.6033000E+02 0.0000000E+00 0.0000000E+00 0.6000000E-01 0.1000000E+01 0.2970800E-19 0.0000000E+00 0.1000000E+01 0.0000000E+00 0.1029430E+04
 0.5319000E+01 0.0000000E+00 -.2500000E+02 0.1530400E+08 0.6067000E+02 0.0000000E+00 0.0000000E+00 0.6000000E-01 0.1000000E+01 0.1776900E-15 0.0000000E+00 0.1000000E+01 0.0000000E+00 0.1029300E+04
 0.5319000E+01 0.0000000E+00 -.3500000E+02 0.1540500E+08 0.6100000E+02 0.0000000E+00 0.0000000E+00 0.6000000E-01 0.1000000E+01 0.5908800E-12 0.0000000E+00 0.1000000E+01 0.0000000E+00 0.1029180E+04
 0.5319000E+01 0.0000000E+00 -.4500000E+02 0.1550600E+08 0.6133000E+02 0.0000000E+00 0.0000000E+00 0.6000000E-01 0.1000000E+01 0.1158000E-08 0.0000000E+00 0.1000000E+01 0.0000000E+00 0.1029060E+04
 0.5319000E+01 0.0000000E+00 -.5500000E+02 0.1560800E+08 0.6167000E+02 0.0000000E+00 0.0000000E+00 0.6000000E-01 0.1000000E+01 0.1347400E-05 0.0000000E+00 0.1000000E+01 0.0000000E+00 0.1028930E+04
 0.5319000E+01 0.0000000E+00 -.6500000E+02 0.1570900E+08 0.6200000E+02 0.0000000E+00 0.0000000E+00 0.5994400E-01 0.1000000E+01 0.9357300E-03 0.0000000E+00 0.1000000E+01 0.0000000E+00 0.1028990E+04
 0.5319000E+01 0.0000000E+00 -.7500000E+02 0.1582200E+08 0.6233000E+02 0.1028000E+00 0.0000000E+00 0.5773800E-01 0.3290700E-02 0.3757000E-01 -.9535900E+04 0.1000000E+01 0.6120200E+03 0.1035930E+04
 0.5319000E+01 0.0000000E+00 -.8500000E+02 0.1593400E+08 0.6267000E+02 0.2111900E+00 0.0000000E+00 0.5773700E-01 0.3324600E-02 0.3757900E-01 -.1586300E+05 0.1000000E+01 0.6127300E+03 0.1035810E+04
 0.5319000E+01 0.0000000E+00 -.9500000E+02 0.1604100E+08 0.6300000E+02 0.2961500E+00 0.0000000E+00 0.5773700E-01 0.3357900E-02 0.3758300E-01 -.2117100E+05 0.1000000E+01 0.6132400E+03 0.1035690E+04
 0.7510000E+01 0.0000000E+00 -.5000000E+01 0.1510200E+08 0.6000000E+02 0.0000000E+00 0.0000000E+00 0.6000000E-01 0.1000000E+01 0.9582100E-24 0.0000000E+00 0.1000000E+01 0.0000000E+00 0.1029550E+04
 0.7510000E+01 0.0000000E+00 -.1500000E+02 0.1520300E+08 0.6033000E+02 0.0000000E+00 0.0000000E+00 0.6000000E-01 0.1000000E+01 0.1356600E-19 0.0000000E+00 0.1000000E+01 0.0000000E+00 0.1029430E+04
 0.7510000E+01 0.0000000E+00 -.2500000E+02 0.1530400E+08 0.6067000E+02 0.0000000E+00 0.0000000E+00 0.6000000E-01 0.1000000E+01 0.8419700E-16 0.0000000E+00 0.1000000E+01 0.0000000E+00 0.1029300E+04
 0.7510000E+01 0.0000000E+00 -.3500000E+02 0.1540500E+08 0.6100000E+02 0.0000000E+00 0.0000000E+00 0.6000000E-01 0.1000000E+01 0.2845900E-12 0.0000000E+00 0.1000000E+01 0.0000000E+00 0.1029180E+04
 0.7510000E+01 0.0000000E+00 -.4500000E+02 0.1550600E+08 0.6133000E+02 0.0000000E+00 0.0000000E+00 0.6000000E-01 0.1000000E+01 0.5360500E-09 0.0000000E+00 0.1000000E+01 0.0000000E+00 0.1029060E+04
 0.7510000E+01 0.0000000E+00 -.5500000E+02 0.1560800E+08 0.6167000E+02 0.0000000E+00 0.0000000E+00 0.6000000E-01 0.1000000E+01 0.5206500E-06 0.0000000E+00 0.1000000E+01 0.0000000E+00 0.1028930E+04
 0.7510000E+01 0.0000000E+00 -.6500000E+02 0.1570900E+08 0.6200000E+02 0.0000000E+00 0.0000000E+00 0.5998700E-01 0.1000000E+01 0.2133800E-03 0.0000000E+00 0.1000000E+01 0.0000000E+00 0.1028850E+04
 0.7510000E+01 0.0000000E+00 -.7500000E+02 0.1581900E+08 0.6233000E+02 0.6096000E-01 0.0000000E+00 0.5773800E-01 0.3290300E-02 0.3756700E-01 -.6872600E+04 0.1000000E+01 0.6119200E+03 0.1035930E+04
 0.7510000E+01 0.0000000E+00 -.8500000E+02 0.1593300E+08 0.6267000E+02 0.1987600E+00 0.0000000E+00 0.5773700E-01 0.3324400E-02 0.3757800E-01 -.1513100E+05 0.1000000E+01 0.6127000E+03 0.1035810E+04
 0.7510000E+01 0.0000000E+00 -.9500000E+02 0.1603900E+08 0.6300000E+02 0.2685400E+00 0.0000000E+00 0.5773700E-01 0.3357700E-02 0.3758200E-01 -.1937200E+05 0.1000000E+01 0.6131700E+03 0.1035690E+04
 0.1048000E+02 0.0000000E+00 -.5000000E+01 0.1510200E+08 0.6000000E+02 0.0000000E+00 0.0000000E+00 0.6000000E-01 0.1000000E+01 0.2495400E-24 0.0000000E+00 0.1000000E+01 0.0000000E+00 0.1029550E+04
 0.1048000E+02 0.0000000E+00 -.1500000E+02 0.1520300E+08 0.6033000E+02 0.0000000E+00 0.0000000E+00 0.6000000E-01 0.1000000E+01 0.3851800E-20 0.0000000E+00 0.1000000E+01 0.0000000E+00 0.1029430E+04
 0.1048000E+02 0.0000000E+00 -.2500000E+02 0.1530400E+08 0.6067000E+02 0.0000000E+00 0.0000000E+00 0.6000000E-01 0.1000000E+01 0.2661500E-16 0.0000000E+00 0.1000000E+01 0.0000000E+00 0.1029300E+04
 0.1048000E+02 0.0000000E+00 -.3500000E+02 0.1540500E+08 0.6100000E+02 0.0000000E+00 0.0000000E+00 0.6000000E-01 0.1000000E+01 0.1030500E-12 0.0000000E+00 0.1000000E+01 0.0000000E+00 0.1029180E+04
 0.1048000E+02 0.0000000E+00 -.4500000E+02 0.1550600E+08 0.6133000E+02 0.0000000E+00 0.0000000E+00 0.6000000E-01 0.1000000E+01 0.2318700E-09 0.0000000E+00 0.1000000E+01 0.0000000E+00 0.1029060E+04
 0.1048000E+02 0.0000000E+00 -.5500000E+02 0.1560800E+08 0.6167000E+02 0.0000000E+00 0.0000000E+00 0.6000000E-01 0.1000000E+01 0.2883700E-06 0.0000000E+00 0.1000000E+01 0.0000000E+00 0.1028930E+04
 0.1048000E+02 0.0000000E+00 -.6500000E+02 0.1570900E+08 0.6200000E+02 0.0000000E+00 0.0000000E+00 0.5999000E-01 0.1000000E+01 0.1729500E-03 0.0000000E+00 0.1000000E+01 0.0000000E+00 0.1028840E+04
 0.1048000E+02 0.0000000E+00 -.7500000E+02 0.1581200E+08 0.6233000E+02 0.0000000E+00 0.0000000E+00 0.5787500E-01 0.1000000E+01 0.3529500E-01 0.0000000E+00 0.1000000E+01 0.0000000E+00 0.1035480E+04
 0.1048000E+02 0.0000000E+00 -.8500000E+02 0.1593100E+08 0.6267000E+02 0.1784800E+00 0.0000000E+00 0.5773700E-01 0.3324200E-02 0.3757700E-01 -.1395000E+05 0.1000000E+01 0.6126400E+03 0.1035810E+04
 0.1048000E+02 0.0000000E+00 -.9500000E+02 0.1603700E+08 0.6300000E+02 0.2380500E+00 0.0000000E+00 0.5773800E-01 0.3357400E-02 0.3758000E-01 -.1747500E+05 0.1000000E+01 0.6131000E+03 0.1035680E+04
 0.1450000E+02 0.0000000E+00 -.5000000E+01 0.1510200E+08 0.6000000E+02 0.0000000E+00 0.0000000E+00 0.6000000E-01 0.1000000E+01 0.2622100E-25 0.0000000E+00 0.1000000E+01 0.0000000E+00 0.1029550E+04
 0.1450000E+02 0.0000000E+00 -.1500000E+02 0.1520300E+08 0.6033000E+02 0.0000000E+00 0.0000000E+00 0.6000000E-01 0.1000000E+01 0.4186100E-21 0.0000000E+00 0.1000000E+01 0.0000000E+00 0.1029430E+04
 0.1450000E+02 0.0000000E+00 -.2500000E+02 0.1530400E+08 0.6067000E+02 0.0000000E+00 0.0000000E+00 0.6000000E-01 0.1000000E+01 0.3034200E-17 0.0000000E+00 0.1000000E+01 0.0000000E+00 0.1029300E+04
 0.1450000E+02 0.0000000E+00 -.3500000E+02 0.1540500E+08 0.6100000E+02 0.0000000E+00 0.0000000E+00 0.6000000E-01 0.1000000E+01 0.1258000E-13 0.0000000E+00 0.1000000E+01 0.0000000E+00 0.1029180E+04
 0.1450000E+02 0.0000000E+00 -.4500000E+02 0.1550600E+08 0.6133000E+02 0.0000000E+00 0.0000000E+00 0.6000000E-01 0.1000000E+01 0.3122600E-10 0.0000000E+00 0.1000000E+01 0.0000000E+00 0.1029060E+04
 0.1450000E+02 0.0000000E+00 -.5500000E+02 0.1560800E+08 0.6167000E+02 0.0000000E+00 0.0000000E+00 0.6000000E-01 0.1000000E+01 0.4471200E-07 0.0000000E+00 0.1000000E+01 0.0000000E+00 0.1028930E+04
 0.1450000E+02 0.0000000E+00 -.6500000E+02 0.1570900E+08 0.6200000E+02 0.0000000E+00 0.0000000E+00 0.5999800E-01 0.1000000E+01 0.3269700E-04 0.0000000E+00 0.1000000E+01 0.0000000E+00 0.1028810E+04
 0.1450000E+02 0.0000000E+00 -.7500000E+02 0.1581100E+08 0.6233000E+02 0.0000000E+00 0.0000000E+00 0.5948100E-01 0.1000000E+01 0.8620900E-02 0.0000000E+00 0.1000000E+01 0.0000000E+00 0.1030340E+04
 0.1450000E+02 0.0000000E+00 -.8500000E+02 0.1592800E+08 0.6267000E+02 0.1400800E+00 0.0000000E+00 0.5773800E-01 0.3323800E-02 0.3757400E-01 -.1173000E+05 0.1000000E+01 0.6125300E+03 0.1035810E+04
 0.1450000E+02 0.0000000E+00 -.9500000E+02 0.1603400E+08 0.6300000E+02 0.2017600E+00 0.0000000E+00 0.5773800E-01 0.3357100E-02 0.3757900E-01 -.1530700E+05 0.1000000E+01 0.6130100E+03 0.1035680E+04
 0.1996000E+02 0.0000000E+00 -.5000000E+01 0.1510200E+08 0.6000000E+02 0.0000000E+00 0.0000000E+00 0.6000000E-01 0.1000000E+01 0.9978300E-27 0.0000000E+00 0.1000000E+01 0.0000000E+00 0.1029550E+04
 0.1996000E+02 0.0000000E+00 -.1500000E+02 0.1520300E+08 0.6033000E+02 0.0000000E+00 0.0000000E+00 0.6000000E-01 0.1000000E+01 0.1608200E-22 0.0000000E+00 0.1000000E+01 0.0000000E+00 0.1029430E+04
 0.1996000E+02 0.0000000E+00 -.2500000E+02 0.1530400E+08 0.6067000E+02 0.0000000E+00 0.0000000E+00 0.6000000E-01 0.1000000E+01 0.1172700E-18 0.0000000E+00 0.1000000E+01 0.0000000E+00 0.1029300E+04
 0.1996000E+02 0.0000000E+00 -.3500000E+02 0.1540500E+08 0.6100000E+02 0.0000000E+00 0.0000000E+00 0.6000000E-01 0.1000000E+01 0.4871100E-15 0.0000000E+00 0.1000000E+01 0.0000000E+00 0.1029180E+04
 0.1996000E+02 0.0000000E+00 -.4500000E+02 0.1550600E+08 0.6133000E+02 0.0000000E+00 0.0000000E+00 0.6000000E-01 0.1000000E+01 0.1206500E-11 0.0000000E+00 0.1000000E+01 0.0000000E+00 0.1029060E+04
 0.1996000E+02 0.0000000E+00 -.5500000E+02 0.1560800E+08 0.6167000E+02 0.0000000E+00 0.0000000E+00 0.6000000E-01 0.1000000E+01 0.1720800E-08 0.0000000E+00 0.1000000E+01 0.0000000E+00 0.1028930E+04
 0.1996000E+02 0.0000000E+00 -.6500000E+02 0.1570900E+08 0.6200000E+02 0.0000000E+00 0.0000000E+00 0.6000000E-01 0.1000000E+01 0.1259300E-05 0.0000000E+00 0.1000000E+01 0.0000000E+00 0.1028810E+04
 0.1996000E+02 0.0000000E+00 -.7500000E+02 0.1581100E+08 0.6233000E+02 0.0000000E+00 0.0000000E+00 0.5997900E-01 0.1000000E+01 0.3569600E-03 0.0000000E+00 0.1000000E+01 0.0000000E+00 0.1028750E+04
 0.1996000E+02 0.0000000E+00 -.8500000E+02 0.1591900E+08 0.6267000E+02 0.2496400E-01 0.0000000E+00 0.5773800E-01 0.3322700E-02 0.3756700E-01 -.4041800E+04 0.1000000E+01 0.6122200E+03 0.1035800E+04
 0.1996000E+02 0.0000000E+00 -.9500000E+02 0.1603000E+08 0.6300000E+02 0.1491600E+00 0.0000000E+00 0.5773800E-01 0.3356600E-02 0.3757600E-01 -.1225600E+05 0.1000000E+01 0.6128700E+03 0.1035680E+04
 0.2735000E+02 0.0000000E+00 -.5000000E+01 0.1510200E+08 0.6000000E+02 0.0000000E+00 0.0000000E+00 0.6000000E-01 0.1000000E+01 0.1686100E-28 0.0000000E+00 0.1000000E+01 0.0000000E+00 0.1029550E+04
 0.2735000E+02 0.0000000E+00 -.1500000E+02 0.1520300E+08 0.6033000E+02 0.0000000E+00 0.0000000E+00 0.6000000E-01 0.1000000E+01 0.2782500E-24 0.0000000E+00 0.1000000E+01 0.0000000E+00 0.1029430E+04
 0.2735000E+02 0.0000000E+00 -.2500000E+02 0.1530400E+08 0.6067000E+02 0.0000000E+00 0.0000000E+00 0.6000000E-01 0.1000000E+01 0.2084200E-20 0.0000000E+00 0.1000000E+01 0.0000000E+00 0.1029300E+04
 0.2735000E+02 0.0000000E+00 -.3500000E+02 0.1540500E+08 0.6100000E+02 0.0000000E+00 0.0000000E+00 0.6000000E-01 0.1000000E+01 0.8942300E-17 0.0000000E+00 0.1000000E+01 0.0000000E+00 0.1029180E+04
 0.2735000E+02 0.0000000E+00 -.4500000E+02 0.1550600E+08 0.6133000E+02 0.0000000E+00 0.0000000E+00 0.6000000E-01 0.1000000E+01 0.2311100E-13 0.0000000E+00 0.1000000E+01 0.0000000E+00 0.1029060E+04
 0.2735000E+02 0.0000000E+00 -.5500000E+02 0.1560800E+08 0.6167000E+02 0.0000000E+00 0.0000000E+00 0.6000000E-01 0.1000000E+01 0.3508700E-10 0.0000000E+00 0.1000000E+01 0.0000000E+00 0.1028930E+04
 0.2735000E+02 0.0000000E+00 -.6500000E+02 0.1570900E+08 0.6200000E+02 0.0000000E+00 0.0000000E+00 0.6000000E-01 0.1000000E+01 0.2861600E-07 0.0000000E+00 0.1000000E+01 0.0000000E+00 0.1028810E+04
 0.2735000E+02 0.0000000E+00 -.7500000E+02 0.1581100E+08 0.6233000E+02 0.0000000E+00 0.0000000E+00 0.5999900E-01 0.1000000E+01 0.1055600E-04 0.0000000E+00 0.1000000E+01 0.0000000E+00 0.1028680E+04
 0.2735000E+02 0.0000000E+00 -.8500000E+02 0.1591300E+08 0.6267000E+02 0.0000000E+00 0.0000000E+00 0.5990000E-01 0.1000000E+01 0.1655700E-02 0.0000000E+00 0.1000000E+01 0.0000000E+00 0.1028870E+04
 0.2735000E+02 0.0000000E+00 -.9500000E+02 0.1601900E+08 0.6300000E+02 0.1771200E-01 0.0000000E+00 0.5773800E-01 0.3355300E-02 0.3756900E-01 -.3302100E+04 0.1000000E+01 0.6125400E+03 0.1035670E+04
 0.3737000E+02 0.0000000E+00 -.5000000E+01 0.1510200E+08 0.6000000E+02 0.0000000E+00 0.0000000E+00 0.6000000E-01 0.1000000E+01 0.1219900E-30 0.0000000E+00 0.1000000E+01 0.0000000E+00 0.1029550E+04
 0.3737000E+02 0.0000000E+00 -.1500000E+02 0.1520300E+08 0.6033000E+02 0.0000000E+00 0.0000000E+00 0.6000000E-01 0.1000000E+01 0.2072700E-26 0.0000000E+00 0.1000000E+01 0.0000000E+00 0.1029430E+04
 0.3737000E+02 0.0000000E+00 -.2500000E+02 0.1530400E+08 0.6067000E+02 0.0000000E+00 0.0000000E+00 0.6000000E-01 0.1000000E+01 0.1604600E-22 0.0000000E+00 0.1000000E+01 0.0000000E+00 0.1029300E+04
 0.3737000E+02 0.0000000E+00 -.3500000E+02 0.1540500E+08 0.6100000E+02 0.0000000E+00 0.0000000E+00 0.6000000E-01 0.1000000E+01 0.7162500E-19 0.0000000E+00 0.1000000E+01 0.0000000E+00 0.1029180E+04
 0.3737000E+02 0.0000000E+00 -.4500000E+02 0.1550600E+08 0.6133000E+02 0.0000000E+00 0.0000000E+00 0.6000000E-01 0.1000000E+01 0.1948200E-15 0.0000000E+00 0.1000000E+01 0.0000000E+00 0.1029060E+04
 0.3737000E+02 0.0000000E+00 -.5500000E+02 0.1560800E+08 0.6167000E+02 0.0000000E+00 0.0000000E+00 0.6000000E-01 0.1000000E+01 0.3180800E-12 0.0000000E+00 0.1000000E+01 0.0000000E+00 0.1028930E+04
 0.3737000E+02 0.0000000E+00 -.6500000E+02 0.1570900E+08 0.6200000E+02 0.0000000E+00 0.0000000E+00 0.6000000E-01 0.1000000E+01 0.2918300E-09 0.0000000E+00 0.1000000E+01 0.0000000E+00 0.1028810E+04
 0.3737000E+02 0.0000000E+00 -.7500000E+02 0.1581100E+08 0.6233000E+02 0.0000000E+00 0.0000000E+00 0.6000000E-01 0.1000000E+01 0.1347000E-06 0.0000000E+00 0.1000000E+01 0.0000000E+00 0.1028680E+04
 0.3737000E+02 0.0000000E+00 -.8500000E+02 0.1591200E+08 0.6267000E+02 0.0000000E+00 0.0000000E+00 0.5999800E-01 0.1000000E+01 0.2854500E-04 0.0000000E+00 0.1000000E+01 0.0000000E+00 0.1028560E+04
 0.3737000E+02 0.0000000E+00 -.9500000E+02 0.1601400E+08 0.6300000E+02 0.0000000E+00 0.0000000E+00 0.5992900E-01 0.1000000E+01 0.1183300E-02 0.0000000E+00 0.1000000E+01 0.0000000E+00 0.1028660E+04
 0.5095000E+02 0.0000000E+00 -.5000000E+01 0.1510200E+08 0.6000000E+02 0.0000000E+00 0.0000000E+00 0.6000000E-01 0.1000000E+01 0.3671000E-33 0.0000000E+00 0.1000000E+01 0.0000000E+00 0.1029550E+04
 0.5095000E+02 0.0000000E+00 -.1500000E+02 0.1520300E+08 0.6033000E+02 0.0000000E+00 0.0000000E+00 0.6000000E-01 0.1000000E+01 0.6499900E-29 0.0000000E+00 0.1000000E+01 0.0000000E+00 0.1029430E+04
 0.5095000E+02 0.0000000E+00 -.2500000E+02 0.1530400E+08 0.6067000E+02 0.0000000E+00 0.0000000E+00 0.6000000E-01 0.1000000E+01 0.5271500E-25 0.0000000E+00 0.1000000E+01 0.0000000E+00 0.1029300E+04
 0.5095000E+02 0.0000000E+00 -.3500000E+02 0.1540500E+08 0.6100000E+02 0.0000000E+00 0.0000000E+00 0.6000000E-01 0.1000000E+01 0.2486600E-21 0.0000000E+00 0.1000000E+01 0.0000000E+00 0.1029180E+04
 0.5095000E+02 0.0000000E+00 -.4500000E+02 0.1550600E+08 0.6133000E+02 0.0000000E+00 0.0000000E+00 0.6000000E-01 0.1000000E+01 0.7251100E-18 0.0000000E+00 0.1000000E+01 0.0000000E+00 0.1029060E+04
 0.5095000E+02 0.0000000E+00 -.5500000E+02 0.1560800E+08 0.6167000E+02 0.0000000E+00 0.0000000E+00 0.6000000E-01 0.1000000E+01 0.1301300E-14 0.0000000E+00 0.1000000E+01 0.0000000E+00 0.1028930E+04
 0.5095000E+02 0.0000000E+00 -.6500000E+02 0.1570900E+08 0.6200000E+02 0.0000000E+00 0.0000000E+00 0.6000000E-01 0.1000000E+01 0.1373800E-11 0.0000000E+00 0.1000000E+01 0.0000000E+00 0.1028810E+04
 0.5095000E+02 0.0000000E+00 -.7500000E+02 0.1581000E+08 0.6233000E+02 0.0000000E+00 0.0000000E+00 0.6000000E-01 0.1000000E+01 0.7899100E-09 0.0000000E+00 0.1000000E+01 0.0000000E+00 0.1028680E+04
 0.5095000E+02 0.0000000E+00 -.8500000E+02 0.1591200E+08 0.6267000E+02 0.0000000E+00 0.0000000E+00 0.6000000E-01 0.1000000E+01 0.2203900E-06 0.0000000E+00 0.1000000E+01 0.0000000E+00 0.1028560E+04
 0.5095000E+02 0.0000000E+00 -.9500000E+02 0.1601300E+08 0.6300000E+02 0.0000000E+00 0.0000000E+00 0.5999900E-01 0.1000000E+01 0.1394100E-04 0.0000000E+00 0.1000000E+01 0.0000000E+00 0.1028430E+04
 0.6935000E+02 0.0000000E+00 -.5000000E+01 0.1510200E+08 0.6000000E+02 0.0000000E+00 0.0000000E+00 0.6000000E-01 0.1000000E+01 0.4508400E-36 0.0000000E+00 0.1000000E+01 0.0000000E+00 0.1029550E+04
 0.6935000E+02 0.0000000E+00 -.1500000E+02 0.1520300E+08 0.6033000E+02 0.0000000E+00 0.0000000E+00 0.6000000E-01 0.1000000E+01 0.8452100E-32 0.0000000E+00 0.1000000E+01 0.0000000E+00 0.1029430E+04
 0.6935000E+02 0.0000000E+00 -.2500000E+02 0.1530400E+08 0.6067000E+02 0.0000000E+00 0.0000000E+00 0.6000000E-01 0.1000000E+01 0.7314000E-28 0.0000000E+00 0.1000000E+01 0.0000000E+00 0.1029300E+04
 0.6935000E+02 0.0000000E+00 -.3500000E+02 0.1540500E+08 0.6100000E+02 0.0000000E+00 0.0000000E+00 0.6000000E-01 0.1000000E+01 0.3723400E-24 0.0000000E+00 0.1000000E+01 0.0000000E+00 0.1029180E+04
 0.6935000E+02 0.0000000E+00 -.4500000E+02 0.1550600E+08 0.6133000E+02 0.0000000E+00 0.0000000E+00 0.6000000E-01 0.1000000E+01 0.1192600E-20 0.0000000E+00 0.1000000E+01 0.0000000E+00 0.1029060E+04
 0.6935000E+02 0.0000000E+00 -.5500000E+02 0.1560700E+08 0.6167000E+02 0.0000000E+00 0.0000000E+00 0.6000000E-01 0.1000000E+01 0.2416500E-17 0.0000000E+00 0.1000000E+01 0.0000000E+00 0.1028930E+04
 0.6935000E+02 0.0000000E+00 -.6500000E+02 0.1570900E+08 0.6200000E+02 0.0000000E+00 0.0000000E+00 0.6000000E-01 0.1000000E+01 0.3005100E-14 0.0000000E+00 0.1000000E+01 0.0000000E+00 0.1028810E+04
 0.6935000E+02 0.0000000E+00 -.7500000E+02 0.1581000E+08 0.6233000E+02 0.0000000E+00 0.0000000E+00 0.6000000E-01 0.1000000E+01 0.2153900E-11 0.0000000E+00 0.1000000E+01 0.0000000E+00 0.1028680E+04
 0.6935000E+02 0.0000000E+00 -.8500000E+02 0.1591100E+08 0.6267000E+02 0.0000000E+00 0.0000000E+00 0.6000000E-01 0.1000000E+01 0.7763700E-09 0.0000000E+00 0.1000000E+01 0.0000000E+00 0.1028560E+04
 0.6935000E+02 0.0000000E+00 -.9500000E+02 0.1601200E+08 0.6300000E+02 0.0000000E+00 0.0000000E+00 0.6000000E-01 0.1000000E+01 0.7021400E-07 0.0000000E+00 0.1000000E+01 0.0000000E+00 0.1028430E+04