 VARIABLES=KCYC TIME DEPTH ADV CON GTT FG FL FTT,DRG,DTT
ZONE T="   0.491502E-12"  F=POINT
ZONE T="   0.497844E-12"  F=POINT
ZONE T="   0.510528E-12"  F=POINT
ZONE T="   0.535895E-12"  F=POINT
ZONE T="   0.586631E-12"  F=POINT
ZONE T="   0.688102E-12"  F=POINT
ZONE T="   0.891045E-12"  F=POINT
ZONE T="   0.129693E-11"  F=POINT
ZONE T="   0.210870E-11"  F=POINT
ZONE T="   0.373224E-11"  F=POINT
ZONE T="   0.470637E-11"  F=POINT
ZONE T="   0.529084E-11"  F=POINT
ZONE T="   0.645979E-11"  F=POINT
ZONE T="   0.716116E-11"  F=POINT
ZONE T="   0.856390E-11"  F=POINT
ZONE T="   0.940555E-11"  F=POINT
ZONE T="   0.110888E-10"  F=POINT
ZONE T="   0.120988E-10"  F=POINT
ZONE T="   0.127048E-10"  F=POINT
ZONE T="   0.130684E-10"  F=POINT
ZONE T="   0.132865E-10"  F=POINT
ZONE T="   0.137228E-10"  F=POINT
ZONE T="   0.139846E-10"  F=POINT
ZONE T="   0.145082E-10"  F=POINT
ZONE T="   0.148223E-10"  F=POINT
ZONE T="   0.150108E-10"  F=POINT
ZONE T="   0.153878E-10"  F=POINT
ZONE T="   0.156140E-10"  F=POINT
ZONE T="   0.157497E-10"  F=POINT
ZONE T="   0.160211E-10"  F=POINT
ZONE T="   0.161840E-10"  F=POINT
ZONE T="   0.165097E-10"  F=POINT
ZONE T="   0.171611E-10"  F=POINT
ZONE T="   0.175519E-10"  F=POINT
ZONE T="   0.177864E-10"  F=POINT
ZONE T="   0.182554E-10"  F=POINT
ZONE T="   0.185368E-10"  F=POINT
ZONE T="   0.187057E-10"  F=POINT
ZONE T="   0.190434E-10"  F=POINT
ZONE T="   0.192460E-10"  F=POINT
ZONE T="   0.196512E-10"  F=POINT
ZONE T="   0.204617E-10"  F=POINT
ZONE T="   0.209479E-10"  F=POINT
ZONE T="   0.212397E-10"  F=POINT
ZONE T="   0.218232E-10"  F=POINT
ZONE T="   0.221733E-10"  F=POINT
ZONE T="   0.223834E-10"  F=POINT
ZONE T="   0.225094E-10"  F=POINT
ZONE T="   0.227615E-10"  F=POINT
ZONE T="   0.229128E-10"  F=POINT
ZONE T="   0.232153E-10"  F=POINT
ZONE T="   0.233968E-10"  F=POINT
ZONE T="   0.237598E-10"  F=POINT
ZONE T="   0.244858E-10"  F=POINT
ZONE T="   0.259378E-10"  F=POINT
ZONE T="   0.268090E-10"  F=POINT
ZONE T="   0.273317E-10"  F=POINT
ZONE T="   0.283771E-10"  F=POINT
ZONE T="   0.290044E-10"  F=POINT
ZONE T="   0.302589E-10"  F=POINT
ZONE T="   0.310116E-10"  F=POINT
ZONE T="   0.325171E-10"  F=POINT
ZONE T="   0.334203E-10"  F=POINT
ZONE T="   0.352268E-10"  F=POINT
ZONE T="   0.363107E-10"  F=POINT
ZONE T="   0.369611E-10"  F=POINT
ZONE T="   0.373513E-10"  F=POINT
ZONE T="   0.381317E-10"  F=POINT
ZONE T="   0.396925E-10"  F=POINT
ZONE T="   0.406290E-10"  F=POINT
ZONE T="   0.425020E-10"  F=POINT
ZONE T="   0.436258E-10"  F=POINT
ZONE T="   0.443001E-10"  F=POINT
ZONE T="   0.447047E-10"  F=POINT
ZONE T="   0.455138E-10"  F=POINT
ZONE T="   0.471321E-10"  F=POINT
ZONE T="   0.481030E-10"  F=POINT
ZONE T="   0.486856E-10"  F=POINT
ZONE T="   0.498508E-10"  F=POINT
ZONE T="   0.505499E-10"  F=POINT
ZONE T="   0.519480E-10"  F=POINT
ZONE T="   0.547444E-10"  F=POINT
ZONE T="   0.564222E-10"  F=POINT
ZONE T="   0.574289E-10"  F=POINT
ZONE T="   0.580329E-10"  F=POINT
ZONE T="   0.583954E-10"  F=POINT
ZONE T="   0.591202E-10"  F=POINT
ZONE T="   0.595551E-10"  F=POINT
ZONE T="   0.604248E-10"  F=POINT
ZONE T="   0.621644E-10"  F=POINT
ZONE T="   0.632082E-10"  F=POINT
ZONE T="   0.652956E-10"  F=POINT
ZONE T="   0.694706E-10"  F=POINT
ZONE T="   0.719756E-10"  F=POINT
ZONE T="   0.734785E-10"  F=POINT
ZONE T="   0.743803E-10"  F=POINT
ZONE T="   0.749214E-10"  F=POINT
ZONE T="   0.760036E-10"  F=POINT
ZONE T="   0.781679E-10"  F=POINT
ZONE T="   0.794664E-10"  F=POINT
ZONE T="   0.802456E-10"  F=POINT
ZONE T="   0.818039E-10"  F=POINT
ZONE T="   0.849205E-10"  F=POINT
ZONE T="   0.911536E-10"  F=POINT
ZONE T="   0.103620E-09"  F=POINT
ZONE T="   0.111100E-09"  F=POINT
ZONE T="   0.115588E-09"  F=POINT
ZONE T="   0.118280E-09"  F=POINT
ZONE T="   0.119896E-09"  F=POINT
ZONE T="   0.120865E-09"  F=POINT
ZONE T="   0.122804E-09"  F=POINT
ZONE T="   0.123967E-09"  F=POINT
ZONE T="   0.126294E-09"  F=POINT
ZONE T="   0.130947E-09"  F=POINT
ZONE T="   0.133739E-09"  F=POINT
ZONE T="   0.139323E-09"  F=POINT
ZONE T="   0.142673E-09"  F=POINT
ZONE T="   0.144683E-09"  F=POINT
ZONE T="   0.145889E-09"  F=POINT
ZONE T="   0.148301E-09"  F=POINT
ZONE T="   0.153125E-09"  F=POINT
ZONE T="   0.156020E-09"  F=POINT
ZONE T="   0.161809E-09"  F=POINT
ZONE T="   0.165282E-09"  F=POINT
ZONE T="   0.172229E-09"  F=POINT
ZONE T="   0.186123E-09"  F=POINT
ZONE T="   0.194460E-09"  F=POINT
ZONE T="   0.211132E-09"  F=POINT
ZONE T="   0.221136E-09"  F=POINT
ZONE T="   0.227138E-09"  F=POINT
ZONE T="   0.239142E-09"  F=POINT
ZONE T="   0.263151E-09"  F=POINT
ZONE T="   0.277556E-09"  F=POINT
ZONE T="   0.306367E-09"  F=POINT
ZONE T="   0.323653E-09"  F=POINT
ZONE T="   0.334025E-09"  F=POINT
ZONE T="   0.340248E-09"  F=POINT
ZONE T="   0.343982E-09"  F=POINT
ZONE T="   0.346222E-09"  F=POINT
ZONE T="   0.347566E-09"  F=POINT
ZONE T="   0.350254E-09"  F=POINT
ZONE T="   0.355631E-09"  F=POINT
ZONE T="   0.358857E-09"  F=POINT
ZONE T="   0.365309E-09"  F=POINT
ZONE T="   0.369180E-09"  F=POINT
ZONE T="   0.371503E-09"  F=POINT
ZONE T="   0.376149E-09"  F=POINT
ZONE T="   0.385440E-09"  F=POINT
ZONE T="   0.404022E-09"  F=POINT
ZONE T="   0.415171E-09"  F=POINT
ZONE T="   0.421860E-09"  F=POINT
ZONE T="   0.435239E-09"  F=POINT
ZONE T="   0.443267E-09"  F=POINT
ZONE T="   0.448083E-09"  F=POINT
ZONE T="   0.450973E-09"  F=POINT
ZONE T="   0.456753E-09"  F=POINT
ZONE T="   0.468312E-09"  F=POINT
ZONE T="   0.475248E-09"  F=POINT
ZONE T="   0.479409E-09"  F=POINT
ZONE T="   0.481906E-09"  F=POINT
ZONE T="   0.486900E-09"  F=POINT
ZONE T="   0.489896E-09"  F=POINT
ZONE T="   0.495888E-09"  F=POINT
ZONE T="   0.507873E-09"  F=POINT
ZONE T="   0.515064E-09"  F=POINT
ZONE T="   0.519379E-09"  F=POINT
ZONE T="   0.528008E-09"  F=POINT
ZONE T="   0.533185E-09"  F=POINT
ZONE T="   0.543540E-09"  F=POINT
ZONE T="   0.549753E-09"  F=POINT
ZONE T="   0.553481E-09"  F=POINT
ZONE T="   0.560936E-09"  F=POINT
ZONE T="   0.565409E-09"  F=POINT
ZONE T="   0.568093E-09"  F=POINT
ZONE T="   0.569704E-09"  F=POINT
ZONE T="   0.572925E-09"  F=POINT
ZONE T="   0.579366E-09"  F=POINT
ZONE T="   0.583231E-09"  F=POINT
ZONE T="   0.585550E-09"  F=POINT
ZONE T="   0.590188E-09"  F=POINT
ZONE T="   0.592971E-09"  F=POINT
ZONE T="   0.598536E-09"  F=POINT
ZONE T="   0.609667E-09"  F=POINT
ZONE T="   0.616346E-09"  F=POINT
ZONE T="   0.620353E-09"  F=POINT
ZONE T="   0.628368E-09"  F=POINT
ZONE T="   0.640389E-09"  F=POINT
ZONE T="   0.647602E-09"  F=POINT
ZONE T="   0.651930E-09"  F=POINT
ZONE T="   0.660585E-09"  F=POINT
ZONE T="   0.665778E-09"  F=POINT
ZONE T="   0.668894E-09"  F=POINT
ZONE T="   0.675126E-09"  F=POINT
ZONE T="   0.687590E-09"  F=POINT
ZONE T="   0.695069E-09"  F=POINT
ZONE T="   0.710025E-09"  F=POINT
ZONE T="   0.718999E-09"  F=POINT
ZONE T="   0.736947E-09"  F=POINT
ZONE T="   0.747716E-09"  F=POINT
ZONE T="   0.754178E-09"  F=POINT
ZONE T="   0.758054E-09"  F=POINT
ZONE T="   0.760380E-09"  F=POINT
ZONE T="   0.765032E-09"  F=POINT
ZONE T="   0.774337E-09"  F=POINT
ZONE T="   0.779919E-09"  F=POINT
ZONE T="   0.783269E-09"  F=POINT
ZONE T="   0.785279E-09"  F=POINT
ZONE T="   0.789298E-09"  F=POINT
ZONE T="   0.797337E-09"  F=POINT
ZONE T="   0.813415E-09"  F=POINT
ZONE T="   0.823061E-09"  F=POINT
ZONE T="   0.828849E-09"  F=POINT
ZONE T="   0.840425E-09"  F=POINT
ZONE T="   0.847371E-09"  F=POINT
ZONE T="   0.851538E-09"  F=POINT
ZONE T="   0.854039E-09"  F=POINT
ZONE T="   0.859039E-09"  F=POINT
ZONE T="   0.869041E-09"  F=POINT
ZONE T="   0.875042E-09"  F=POINT
ZONE T="   0.878643E-09"  F=POINT
ZONE T="   0.880803E-09"  F=POINT
ZONE T="   0.885124E-09"  F=POINT
ZONE T="   0.887716E-09"  F=POINT
ZONE T="   0.892901E-09"  F=POINT
ZONE T="   0.903271E-09"  F=POINT
ZONE T="   0.909493E-09"  F=POINT
ZONE T="   0.921936E-09"  F=POINT
ZONE T="   0.929402E-09"  F=POINT
ZONE T="   0.933882E-09"  F=POINT
ZONE T="   0.942842E-09"  F=POINT
ZONE T="   0.948217E-09"  F=POINT
ZONE T="   0.958969E-09"  F=POINT
ZONE T="   0.980471E-09"  F=POINT
ZONE T="   0.993373E-09"  F=POINT
ZONE T="   0.101918E-08"  F=POINT
ZONE T="   0.103466E-08"  F=POINT
ZONE T="   0.104395E-08"  F=POINT
ZONE T="   0.106253E-08"  F=POINT
ZONE T="   0.109968E-08"  F=POINT
ZONE T="   0.112198E-08"  F=POINT
ZONE T="   0.113535E-08"  F=POINT
ZONE T="   0.114338E-08"  F=POINT
ZONE T="   0.115943E-08"  F=POINT
ZONE T="   0.116906E-08"  F=POINT
ZONE T="   0.117484E-08"  F=POINT
ZONE T="   0.118640E-08"  F=POINT
ZONE T="   0.119333E-08"  F=POINT
ZONE T="   0.120720E-08"  F=POINT
ZONE T="   0.123494E-08"  F=POINT
ZONE T="   0.125158E-08"  F=POINT
ZONE T="   0.126156E-08"  F=POINT
ZONE T="   0.128154E-08"  F=POINT
ZONE T="   0.129352E-08"  F=POINT
ZONE T="   0.131748E-08"  F=POINT
ZONE T="   0.136541E-08"  F=POINT
ZONE T="   0.139417E-08"  F=POINT
ZONE T="   0.141143E-08"  F=POINT
ZONE T="   0.142178E-08"  F=POINT
ZONE T="   0.142799E-08"  F=POINT
ZONE T="   0.143172E-08"  F=POINT
ZONE T="   0.143917E-08"  F=POINT
ZONE T="   0.144364E-08"  F=POINT
ZONE T="   0.145259E-08"  F=POINT
ZONE T="   0.145795E-08"  F=POINT
ZONE T="   0.146118E-08"  F=POINT
ZONE T="   0.146762E-08"  F=POINT
ZONE T="   0.147148E-08"  F=POINT
ZONE T="   0.147921E-08"  F=POINT
ZONE T="   0.148385E-08"  F=POINT
ZONE T="   0.149312E-08"  F=POINT
ZONE T="   0.151167E-08"  F=POINT
ZONE T="   0.152280E-08"  F=POINT
ZONE T="   0.154505E-08"  F=POINT
ZONE T="   0.155841E-08"  F=POINT
ZONE T="   0.156642E-08"  F=POINT
ZONE T="   0.158245E-08"  F=POINT
ZONE T="   0.161450E-08"  F=POINT
ZONE T="   0.163373E-08"  F=POINT
ZONE T="   0.167219E-08"  F=POINT
ZONE T="   0.169527E-08"  F=POINT
ZONE T="   0.174142E-08"  F=POINT
ZONE T="   0.176911E-08"  F=POINT
ZONE T="   0.178573E-08"  F=POINT
ZONE T="   0.179570E-08"  F=POINT
ZONE T="   0.180168E-08"  F=POINT
ZONE T="   0.181364E-08"  F=POINT
ZONE T="   0.182082E-08"  F=POINT
ZONE T="   0.183517E-08"  F=POINT
ZONE T="   0.186389E-08"  F=POINT
ZONE T="   0.188111E-08"  F=POINT
ZONE T="   0.189145E-08"  F=POINT
ZONE T="   0.191212E-08"  F=POINT
ZONE T="   0.192452E-08"  F=POINT
ZONE T="   0.193197E-08"  F=POINT
ZONE T="   0.194685E-08"  F=POINT
ZONE T="   0.195578E-08"  F=POINT
ZONE T="   0.196114E-08"  F=POINT
ZONE T="   0.197185E-08"  F=POINT
ZONE T="   0.197828E-08"  F=POINT
ZONE T="   0.199114E-08"  F=POINT
ZONE T="   0.199886E-08"  F=POINT
ZONE T="   0.201429E-08"  F=POINT
ZONE T="   0.204515E-08"  F=POINT
ZONE T="   0.206367E-08"  F=POINT
ZONE T="   0.207478E-08"  F=POINT
ZONE T="   0.209701E-08"  F=POINT
ZONE T="   0.211034E-08"  F=POINT
ZONE T="   0.211834E-08"  F=POINT
ZONE T="   0.212314E-08"  F=POINT
ZONE T="   0.213274E-08"  F=POINT
ZONE T="   0.215194E-08"  F=POINT
ZONE T="   0.216346E-08"  F=POINT
ZONE T="   0.218650E-08"  F=POINT
ZONE T="   0.220032E-08"  F=POINT
ZONE T="   0.222797E-08"  F=POINT
ZONE T="   0.224455E-08"  F=POINT
ZONE T="   0.225451E-08"  F=POINT
ZONE T="   0.226048E-08"  F=POINT
ZONE T="   0.226406E-08"  F=POINT
ZONE T="   0.227123E-08"  F=POINT
ZONE T="   0.228556E-08"  F=POINT
ZONE T="   0.229416E-08"  F=POINT
ZONE T="   0.231136E-08"  F=POINT
ZONE T="   0.232168E-08"  F=POINT
ZONE T="   0.234232E-08"  F=POINT
ZONE T="   0.238359E-08"  F=POINT
ZONE T="   0.240836E-08"  F=POINT
ZONE T="   0.242322E-08"  F=POINT
ZONE T="   0.243214E-08"  F=POINT
ZONE T="   0.243749E-08"  F=POINT
ZONE T="   0.244069E-08"  F=POINT
ZONE T="   0.244262E-08"  F=POINT
ZONE T="   0.244647E-08"  F=POINT
ZONE T="   0.245418E-08"  F=POINT
ZONE T="   0.246958E-08"  F=POINT
ZONE T="   0.250040E-08"  F=POINT
ZONE T="   0.251888E-08"  F=POINT
ZONE T="   0.252998E-08"  F=POINT
ZONE T="   0.255216E-08"  F=POINT
ZONE T="   0.256547E-08"  F=POINT
ZONE T="   0.257346E-08"  F=POINT
ZONE T="   0.258943E-08"  F=POINT
ZONE T="   0.262138E-08"  F=POINT
ZONE T="   0.268527E-08"  F=POINT
ZONE T="   0.272361E-08"  F=POINT
ZONE T="   0.280028E-08"  F=POINT
ZONE T="   0.284629E-08"  F=POINT
ZONE T="   0.287389E-08"  F=POINT
ZONE T="   0.289045E-08"  F=POINT
ZONE T="   0.290039E-08"  F=POINT
ZONE T="   0.290635E-08"  F=POINT
ZONE T="   0.291827E-08"  F=POINT
ZONE T="   0.292543E-08"  F=POINT
ZONE T="   0.292972E-08"  F=POINT
ZONE T="   0.293831E-08"  F=POINT
ZONE T="   0.294346E-08"  F=POINT
ZONE T="   0.295376E-08"  F=POINT
ZONE T="   0.297436E-08"  F=POINT
ZONE T="   0.298673E-08"  F=POINT
ZONE T="   0.299415E-08"  F=POINT
ZONE T="   0.300898E-08"  F=POINT
ZONE T="   0.301788E-08"  F=POINT
ZONE T="   0.303568E-08"  F=POINT
ZONE T="   0.304637E-08"  F=POINT
ZONE T="   0.305278E-08"  F=POINT
ZONE T="   0.305662E-08"  F=POINT
ZONE T="   0.306431E-08"  F=POINT
ZONE T="   0.306893E-08"  F=POINT
ZONE T="   0.307815E-08"  F=POINT
ZONE T="   0.309661E-08"  F=POINT
ZONE T="   0.310769E-08"  F=POINT
ZONE T="   0.311433E-08"  F=POINT
ZONE T="   0.312762E-08"  F=POINT
ZONE T="   0.313560E-08"  F=POINT
ZONE T="   0.315154E-08"  F=POINT
ZONE T="   0.318344E-08"  F=POINT
ZONE T="   0.320258E-08"  F=POINT
ZONE T="   0.321406E-08"  F=POINT
ZONE T="   0.323702E-08"  F=POINT
ZONE T="   0.325080E-08"  F=POINT
ZONE T="   0.327836E-08"  F=POINT
ZONE T="   0.329489E-08"  F=POINT
ZONE T="   0.330481E-08"  F=POINT
ZONE T="   0.332465E-08"  F=POINT
ZONE T="   0.333656E-08"  F=POINT
ZONE T="   0.334370E-08"  F=POINT
ZONE T="   0.335799E-08"  F=POINT
ZONE T="   0.338656E-08"  F=POINT
ZONE T="   0.340370E-08"  F=POINT
ZONE T="   0.341399E-08"  F=POINT
ZONE T="   0.342016E-08"  F=POINT
ZONE T="   0.343250E-08"  F=POINT
ZONE T="   0.345719E-08"  F=POINT
ZONE T="   0.347200E-08"  F=POINT
ZONE T="   0.348089E-08"  F=POINT
ZONE T="   0.348622E-08"  F=POINT
ZONE T="   0.349688E-08"  F=POINT
ZONE T="   0.350328E-08"  F=POINT
ZONE T="   0.351608E-08"  F=POINT
ZONE T="   0.352376E-08"  F=POINT
ZONE T="   0.353911E-08"  F=POINT
ZONE T="   0.356983E-08"  F=POINT
ZONE T="   0.363125E-08"  F=POINT
ZONE T="   0.366811E-08"  F=POINT
ZONE T="   0.374182E-08"  F=POINT
ZONE T="   0.378605E-08"  F=POINT
ZONE T="   0.381258E-08"  F=POINT
ZONE T="   0.382850E-08"  F=POINT
ZONE T="   0.383806E-08"  F=POINT
ZONE T="   0.385716E-08"  F=POINT
ZONE T="   0.386863E-08"  F=POINT
ZONE T="   0.389155E-08"  F=POINT
ZONE T="   0.390531E-08"  F=POINT
ZONE T="   0.391356E-08"  F=POINT
ZONE T="   0.393007E-08"  F=POINT
ZONE T="   0.393998E-08"  F=POINT
ZONE T="   0.394592E-08"  F=POINT
ZONE T="   0.395780E-08"  F=POINT
ZONE T="   0.396493E-08"  F=POINT
ZONE T="   0.397920E-08"  F=POINT
ZONE T="   0.400772E-08"  F=POINT
ZONE T="   0.406477E-08"  F=POINT
ZONE T="   0.409900E-08"  F=POINT
ZONE T="   0.411954E-08"  F=POINT
ZONE T="   0.413186E-08"  F=POINT
ZONE T="   0.415651E-08"  F=POINT
ZONE T="   0.417130E-08"  F=POINT
ZONE T="   0.420087E-08"  F=POINT
ZONE T="   0.426002E-08"  F=POINT
ZONE T="   0.429551E-08"  F=POINT
ZONE T="   0.436649E-08"  F=POINT
ZONE T="   0.440908E-08"  F=POINT
ZONE T="   0.443463E-08"  F=POINT
ZONE T="   0.444996E-08"  F=POINT
ZONE T="   0.445916E-08"  F=POINT
ZONE T="   0.447756E-08"  F=POINT
ZONE T="   0.448860E-08"  F=POINT
ZONE T="   0.449522E-08"  F=POINT
ZONE T="   0.450847E-08"  F=POINT
ZONE T="   0.453496E-08"  F=POINT
ZONE T="   0.455086E-08"  F=POINT
ZONE T="   0.456039E-08"  F=POINT
ZONE T="   0.457947E-08"  F=POINT
ZONE T="   0.461762E-08"  F=POINT
ZONE T="   0.464051E-08"  F=POINT
ZONE T="   0.468629E-08"  F=POINT
ZONE T="   0.471376E-08"  F=POINT
ZONE T="   0.473024E-08"  F=POINT
ZONE T="   0.476320E-08"  F=POINT
ZONE T="   0.482912E-08"  F=POINT
ZONE T="   0.496097E-08"  F=POINT
ZONE T="   0.504007E-08"  F=POINT
ZONE T="   0.508754E-08"  F=POINT
ZONE T="   0.518247E-08"  F=POINT
ZONE T="   0.523943E-08"  F=POINT
ZONE T="   0.527360E-08"  F=POINT
ZONE T="   0.529410E-08"  F=POINT
ZONE T="   0.530641E-08"  F=POINT
ZONE T="   0.533101E-08"  F=POINT
ZONE T="   0.534578E-08"  F=POINT
ZONE T="   0.535463E-08"  F=POINT
ZONE T="   0.537235E-08"  F=POINT
ZONE T="   0.540778E-08"  F=POINT
ZONE T="   0.542904E-08"  F=POINT
ZONE T="   0.544180E-08"  F=POINT
ZONE T="   0.544945E-08"  F=POINT
ZONE T="   0.546476E-08"  F=POINT
ZONE T="   0.547394E-08"  F=POINT
ZONE T="   0.549231E-08"  F=POINT
ZONE T="   0.550333E-08"  F=POINT
ZONE T="   0.550994E-08"  F=POINT
ZONE T="   0.551391E-08"  F=POINT
ZONE T="   0.552184E-08"  F=POINT
ZONE T="   0.553771E-08"  F=POINT
ZONE T="   0.556945E-08"  F=POINT
ZONE T="   0.563293E-08"  F=POINT
ZONE T="   0.567102E-08"  F=POINT
ZONE T="   0.569387E-08"  F=POINT
ZONE T="   0.573958E-08"  F=POINT
ZONE T="   0.576700E-08"  F=POINT
ZONE T="   0.578346E-08"  F=POINT
ZONE T="   0.581636E-08"  F=POINT
ZONE T="   0.588218E-08"  F=POINT
ZONE T="   0.592167E-08"  F=POINT
ZONE T="   0.594536E-08"  F=POINT
ZONE T="   0.595958E-08"  F=POINT
ZONE T="   0.596811E-08"  F=POINT
ZONE T="   0.598517E-08"  F=POINT
ZONE T="   0.599540E-08"  F=POINT
ZONE T="   0.600155E-08"  F=POINT
ZONE T="   0.600523E-08"  F=POINT
ZONE T="   0.601260E-08"  F=POINT
ZONE T="   0.602734E-08"  F=POINT
ZONE T="   0.605682E-08"  F=POINT
ZONE T="   0.611578E-08"  F=POINT
ZONE T="   0.615115E-08"  F=POINT
ZONE T="   0.622190E-08"  F=POINT
ZONE T="   0.626435E-08"  F=POINT
ZONE T="   0.628982E-08"  F=POINT
ZONE T="   0.634076E-08"  F=POINT
ZONE T="   0.637132E-08"  F=POINT
ZONE T="   0.638966E-08"  F=POINT
ZONE T="   0.642634E-08"  F=POINT
ZONE T="   0.644834E-08"  F=POINT
ZONE T="   0.646155E-08"  F=POINT
ZONE T="   0.648795E-08"  F=POINT
ZONE T="   0.654077E-08"  F=POINT
ZONE T="   0.657245E-08"  F=POINT
ZONE T="   0.659147E-08"  F=POINT
ZONE T="   0.660288E-08"  F=POINT
ZONE T="   0.662569E-08"  F=POINT
ZONE T="   0.667132E-08"  F=POINT
ZONE T="   0.676258E-08"  F=POINT
ZONE T="   0.681734E-08"  F=POINT
ZONE T="   0.685020E-08"  F=POINT
ZONE T="   0.686991E-08"  F=POINT
ZONE T="   0.690933E-08"  F=POINT
ZONE T="   0.698818E-08"  F=POINT
ZONE T="   0.703549E-08"  F=POINT
ZONE T="   0.706388E-08"  F=POINT
ZONE T="   0.712065E-08"  F=POINT
ZONE T="   0.715472E-08"  F=POINT
ZONE T="   0.717515E-08"  F=POINT
ZONE T="   0.721603E-08"  F=POINT
ZONE T="   0.729778E-08"  F=POINT
ZONE T="   0.734683E-08"  F=POINT
ZONE T="   0.737627E-08"  F=POINT
ZONE T="   0.743513E-08"  F=POINT
ZONE T="   0.755285E-08"  F=POINT
ZONE T="   0.762348E-08"  F=POINT
ZONE T="   0.766587E-08"  F=POINT
ZONE T="   0.769129E-08"  F=POINT
ZONE T="   0.770655E-08"  F=POINT
ZONE T="   0.773706E-08"  F=POINT
ZONE T="   0.775537E-08"  F=POINT
ZONE T="   0.779199E-08"  F=POINT
ZONE T="   0.786522E-08"  F=POINT
ZONE T="   0.790916E-08"  F=POINT
ZONE T="   0.799704E-08"  F=POINT
ZONE T="   0.804977E-08"  F=POINT
ZONE T="   0.808141E-08"  F=POINT
ZONE T="   0.810039E-08"  F=POINT
ZONE T="   0.811178E-08"  F=POINT
ZONE T="   0.813456E-08"  F=POINT
ZONE T="   0.818011E-08"  F=POINT
ZONE T="   0.827123E-08"  F=POINT
ZONE T="   0.832590E-08"  F=POINT
ZONE T="   0.843523E-08"  F=POINT
ZONE T="   0.850084E-08"  F=POINT
ZONE T="   0.854020E-08"  F=POINT
ZONE T="   0.856381E-08"  F=POINT
ZONE T="   0.857798E-08"  F=POINT
ZONE T="   0.858649E-08"  F=POINT
ZONE T="   0.860349E-08"  F=POINT
ZONE T="   0.863750E-08"  F=POINT
ZONE T="   0.865790E-08"  F=POINT
ZONE T="   0.867015E-08"  F=POINT
ZONE T="   0.869463E-08"  F=POINT
ZONE T="   0.874360E-08"  F=POINT
ZONE T="   0.877299E-08"  F=POINT
ZONE T="   0.879062E-08"  F=POINT
ZONE T="   0.880119E-08"  F=POINT
ZONE T="   0.880754E-08"  F=POINT
ZONE T="   0.882023E-08"  F=POINT
ZONE T="   0.884562E-08"  F=POINT
ZONE T="   0.889639E-08"  F=POINT
ZONE T="   0.892686E-08"  F=POINT
ZONE T="   0.894514E-08"  F=POINT
ZONE T="   0.898169E-08"  F=POINT
ZONE T="   0.900363E-08"  F=POINT
ZONE T="   0.901679E-08"  F=POINT
ZONE T="   0.902469E-08"  F=POINT
ZONE T="   0.902942E-08"  F=POINT
ZONE T="   0.903890E-08"  F=POINT
ZONE T="   0.904458E-08"  F=POINT
ZONE T="   0.905596E-08"  F=POINT
ZONE T="   0.906278E-08"  F=POINT
ZONE T="   0.906687E-08"  F=POINT
ZONE T="   0.907506E-08"  F=POINT
ZONE T="   0.909143E-08"  F=POINT
ZONE T="   0.910126E-08"  F=POINT
ZONE T="   0.912090E-08"  F=POINT
ZONE T="   0.916020E-08"  F=POINT
ZONE T="   0.918378E-08"  F=POINT
ZONE T="   0.923094E-08"  F=POINT
ZONE T="   0.932525E-08"  F=POINT
ZONE T="   0.938184E-08"  F=POINT
ZONE T="   0.941579E-08"  F=POINT
ZONE T="   0.943616E-08"  F=POINT
ZONE T="   0.947691E-08"  F=POINT
ZONE T="   0.950135E-08"  F=POINT
ZONE T="   0.955024E-08"  F=POINT
ZONE T="   0.957958E-08"  F=POINT
ZONE T="   0.959718E-08"  F=POINT
ZONE T="   0.960774E-08"  F=POINT
ZONE T="   0.962886E-08"  F=POINT
ZONE T="   0.967111E-08"  F=POINT
ZONE T="   0.975559E-08"  F=POINT
ZONE T="   0.980628E-08"  F=POINT
ZONE T="   0.983670E-08"  F=POINT
ZONE T="   0.989753E-08"  F=POINT
ZONE T="   0.993403E-08"  F=POINT
ZONE T="   0.995592E-08"  F=POINT
ZONE T="   0.999972E-08"  F=POINT
ZONE T="   0.100260E-07"  F=POINT
ZONE T="   0.100418E-07"  F=POINT
ZONE T="   0.100512E-07"  F=POINT
ZONE T="   0.100701E-07"  F=POINT
ZONE T="   0.101080E-07"  F=POINT
ZONE T="   0.101837E-07"  F=POINT
ZONE T="   0.103350E-07"  F=POINT
ZONE T="   0.104259E-07"  F=POINT
ZONE T="   0.104803E-07"  F=POINT
ZONE T="   0.105130E-07"  F=POINT
ZONE T="   0.105327E-07"  F=POINT
ZONE T="   0.105719E-07"  F=POINT
ZONE T="   0.105954E-07"  F=POINT
ZONE T="   0.106425E-07"  F=POINT
ZONE T="   0.106708E-07"  F=POINT
ZONE T="   0.107273E-07"  F=POINT
ZONE T="   0.108402E-07"  F=POINT
ZONE T="   0.109080E-07"  F=POINT
ZONE T="   0.110436E-07"  F=POINT
ZONE T="   0.111250E-07"  F=POINT
ZONE T="   0.111738E-07"  F=POINT
ZONE T="   0.112714E-07"  F=POINT
ZONE T="   0.113300E-07"  F=POINT
ZONE T="   0.113651E-07"  F=POINT
ZONE T="   0.113862E-07"  F=POINT
ZONE T="   0.114284E-07"  F=POINT
ZONE T="   0.114537E-07"  F=POINT
ZONE T="   0.115043E-07"  F=POINT
ZONE T="   0.116055E-07"  F=POINT
ZONE T="   0.116663E-07"  F=POINT
ZONE T="   0.117027E-07"  F=POINT
ZONE T="   0.117756E-07"  F=POINT
ZONE T="   0.119213E-07"  F=POINT
ZONE T="   0.120088E-07"  F=POINT
ZONE T="   0.121837E-07"  F=POINT
ZONE T="   0.122886E-07"  F=POINT
ZONE T="   0.123516E-07"  F=POINT
ZONE T="   0.123894E-07"  F=POINT
ZONE T="   0.124649E-07"  F=POINT
ZONE T="   0.125103E-07"  F=POINT
ZONE T="   0.126009E-07"  F=POINT
ZONE T="   0.126553E-07"  F=POINT
ZONE T="   0.126880E-07"  F=POINT
ZONE T="   0.127533E-07"  F=POINT
ZONE T="   0.127924E-07"  F=POINT
ZONE T="   0.128708E-07"  F=POINT
ZONE T="   0.129178E-07"  F=POINT
ZONE T="   0.130118E-07"  F=POINT
ZONE T="   0.130682E-07"  F=POINT
ZONE T="   0.131020E-07"  F=POINT
ZONE T="   0.131223E-07"  F=POINT
ZONE T="   0.131630E-07"  F=POINT
ZONE T="   0.131873E-07"  F=POINT
ZONE T="   0.132361E-07"  F=POINT
ZONE T="   0.132653E-07"  F=POINT
ZONE T="   0.133238E-07"  F=POINT
ZONE T="   0.133589E-07"  F=POINT
ZONE T="   0.133799E-07"  F=POINT
ZONE T="   0.134220E-07"  F=POINT
ZONE T="   0.134473E-07"  F=POINT
ZONE T="   0.134978E-07"  F=POINT
ZONE T="   0.135281E-07"  F=POINT
ZONE T="   0.135463E-07"  F=POINT
ZONE T="   0.135827E-07"  F=POINT
ZONE T="   0.136555E-07"  F=POINT
ZONE T="   0.136991E-07"  F=POINT
ZONE T="   0.137864E-07"  F=POINT
ZONE T="   0.138388E-07"  F=POINT
ZONE T="   0.138702E-07"  F=POINT
ZONE T="   0.138891E-07"  F=POINT
ZONE T="   0.139004E-07"  F=POINT
ZONE T="   0.139230E-07"  F=POINT
ZONE T="   0.139366E-07"  F=POINT
ZONE T="   0.139638E-07"  F=POINT
ZONE T="   0.140181E-07"  F=POINT
ZONE T="   0.140507E-07"  F=POINT
ZONE T="   0.140702E-07"  F=POINT
ZONE T="   0.140820E-07"  F=POINT
ZONE T="   0.141054E-07"  F=POINT
ZONE T="   0.141524E-07"  F=POINT
ZONE T="   0.141805E-07"  F=POINT
ZONE T="   0.142368E-07"  F=POINT
ZONE T="   0.142706E-07"  F=POINT
ZONE T="   0.143382E-07"  F=POINT
ZONE T="   0.143787E-07"  F=POINT
ZONE T="   0.144031E-07"  F=POINT
ZONE T="   0.144177E-07"  F=POINT
ZONE T="   0.144264E-07"  F=POINT
ZONE T="   0.144439E-07"  F=POINT
ZONE T="   0.144790E-07"  F=POINT
ZONE T="   0.145490E-07"  F=POINT
ZONE T="   0.145911E-07"  F=POINT
ZONE T="   0.146163E-07"  F=POINT
ZONE T="   0.146667E-07"  F=POINT
ZONE T="   0.147676E-07"  F=POINT
ZONE T="   0.148281E-07"  F=POINT
ZONE T="   0.149492E-07"  F=POINT
ZONE T="   0.150219E-07"  F=POINT
ZONE T="   0.150654E-07"  F=POINT
ZONE T="   0.151526E-07"  F=POINT
ZONE T="   0.152049E-07"  F=POINT
ZONE T="   0.152363E-07"  F=POINT
ZONE T="   0.152991E-07"  F=POINT
ZONE T="   0.153367E-07"  F=POINT
ZONE T="   0.153593E-07"  F=POINT
ZONE T="   0.154045E-07"  F=POINT
ZONE T="   0.154316E-07"  F=POINT
ZONE T="   0.154858E-07"  F=POINT
ZONE T="   0.155943E-07"  F=POINT
ZONE T="   0.156593E-07"  F=POINT
ZONE T="   0.156984E-07"  F=POINT
ZONE T="   0.157765E-07"  F=POINT
ZONE T="   0.159326E-07"  F=POINT
ZONE T="   0.162450E-07"  F=POINT
ZONE T="   0.164324E-07"  F=POINT
ZONE T="   0.165448E-07"  F=POINT
ZONE T="   0.166123E-07"  F=POINT
ZONE T="   0.166528E-07"  F=POINT
ZONE T="   0.166771E-07"  F=POINT
ZONE T="   0.167256E-07"  F=POINT
ZONE T="   0.167548E-07"  F=POINT
ZONE T="   0.168131E-07"  F=POINT
ZONE T="   0.169297E-07"  F=POINT
ZONE T="   0.169996E-07"  F=POINT
ZONE T="   0.171395E-07"  F=POINT
ZONE T="   0.172234E-07"  F=POINT
ZONE T="   0.173913E-07"  F=POINT
ZONE T="   0.174920E-07"  F=POINT
ZONE T="   0.175525E-07"  F=POINT
ZONE T="   0.175887E-07"  F=POINT
ZONE T="   0.176613E-07"  F=POINT
ZONE T="   0.177048E-07"  F=POINT
ZONE T="   0.177309E-07"  F=POINT
ZONE T="   0.177831E-07"  F=POINT
ZONE T="   0.178144E-07"  F=POINT
ZONE T="   0.178771E-07"  F=POINT
ZONE T="   0.179147E-07"  F=POINT
ZONE T="   0.179372E-07"  F=POINT
ZONE T="   0.179508E-07"  F=POINT
ZONE T="   0.179778E-07"  F=POINT
ZONE T="   0.179941E-07"  F=POINT
ZONE T="   0.180038E-07"  F=POINT
ZONE T="   0.180097E-07"  F=POINT
ZONE T="   0.180214E-07"  F=POINT
ZONE T="   0.180448E-07"  F=POINT
ZONE T="   0.180588E-07"  F=POINT
ZONE T="   0.180868E-07"  F=POINT
ZONE T="   0.181430E-07"  F=POINT
ZONE T="   0.181767E-07"  F=POINT
ZONE T="   0.182440E-07"  F=POINT
ZONE T="   0.182844E-07"  F=POINT
ZONE T="   0.183653E-07"  F=POINT
ZONE T="   0.184137E-07"  F=POINT
ZONE T="   0.184428E-07"  F=POINT
ZONE T="   0.184603E-07"  F=POINT
ZONE T="   0.184952E-07"  F=POINT
ZONE T="   0.185162E-07"  F=POINT
ZONE T="   0.185287E-07"  F=POINT
ZONE T="   0.185539E-07"  F=POINT
ZONE T="   0.186042E-07"  F=POINT
ZONE T="   0.187047E-07"  F=POINT
ZONE T="   0.187651E-07"  F=POINT
ZONE T="   0.188013E-07"  F=POINT
ZONE T="   0.188737E-07"  F=POINT
ZONE T="   0.189171E-07"  F=POINT
ZONE T="   0.190040E-07"  F=POINT
ZONE T="   0.191778E-07"  F=POINT
ZONE T="   0.192820E-07"  F=POINT
ZONE T="   0.193446E-07"  F=POINT
ZONE T="   0.194697E-07"  F=POINT
ZONE T="   0.197199E-07"  F=POINT
ZONE T="   0.198701E-07"  F=POINT
ZONE T="   0.199602E-07"  F=POINT
ZONE T="   0.200142E-07"  F=POINT
ZONE T="   0.200466E-07"  F=POINT
ZONE T="   0.200661E-07"  F=POINT
ZONE T="   0.200778E-07"  F=POINT
ZONE T="   0.201011E-07"  F=POINT
ZONE T="   0.201478E-07"  F=POINT
ZONE T="   0.201758E-07"  F=POINT
ZONE T="   0.201926E-07"  F=POINT
ZONE T="   0.202027E-07"  F=POINT
ZONE T="   0.202229E-07"  F=POINT
ZONE T="   0.202350E-07"  F=POINT
ZONE T="   0.202592E-07"  F=POINT
ZONE T="   0.202737E-07"  F=POINT
ZONE T="   0.203028E-07"  F=POINT
ZONE T="   0.203609E-07"  F=POINT
ZONE T="   0.204771E-07"  F=POINT
ZONE T="   0.207095E-07"  F=POINT
ZONE T="   0.208489E-07"  F=POINT
ZONE T="   0.209326E-07"  F=POINT
ZONE T="   0.209828E-07"  F=POINT
ZONE T="   0.210832E-07"  F=POINT
ZONE T="   0.211434E-07"  F=POINT
ZONE T="   0.211796E-07"  F=POINT
ZONE T="   0.212013E-07"  F=POINT
ZONE T="   0.212143E-07"  F=POINT
ZONE T="   0.212403E-07"  F=POINT
ZONE T="   0.212559E-07"  F=POINT
ZONE T="   0.212871E-07"  F=POINT
ZONE T="   0.213496E-07"  F=POINT
ZONE T="   0.214745E-07"  F=POINT
ZONE T="   0.215495E-07"  F=POINT
ZONE T="   0.216994E-07"  F=POINT
ZONE T="   0.217893E-07"  F=POINT
ZONE T="   0.218433E-07"  F=POINT
ZONE T="   0.219512E-07"  F=POINT
ZONE T="   0.220159E-07"  F=POINT
ZONE T="   0.220548E-07"  F=POINT
ZONE T="   0.220781E-07"  F=POINT
ZONE T="   0.221247E-07"  F=POINT
ZONE T="   0.221527E-07"  F=POINT
ZONE T="   0.222086E-07"  F=POINT
ZONE T="   0.222422E-07"  F=POINT
ZONE T="   0.223093E-07"  F=POINT
ZONE T="   0.224436E-07"  F=POINT
ZONE T="   0.225242E-07"  F=POINT
ZONE T="   0.225725E-07"  F=POINT
ZONE T="   0.226692E-07"  F=POINT
ZONE T="   0.227272E-07"  F=POINT
ZONE T="   0.227620E-07"  F=POINT
ZONE T="   0.228316E-07"  F=POINT
ZONE T="   0.228734E-07"  F=POINT
ZONE T="   0.229569E-07"  F=POINT
ZONE T="   0.230070E-07"  F=POINT
ZONE T="   0.231073E-07"  F=POINT
ZONE T="   0.231674E-07"  F=POINT
ZONE T="   0.232035E-07"  F=POINT
ZONE T="   0.232757E-07"  F=POINT
ZONE T="   0.234200E-07"  F=POINT
ZONE T="   0.237087E-07"  F=POINT
ZONE T="   0.238819E-07"  F=POINT
ZONE T="   0.239858E-07"  F=POINT
ZONE T="   0.241936E-07"  F=POINT
ZONE T="   0.243184E-07"  F=POINT
ZONE T="   0.243932E-07"  F=POINT
ZONE T="   0.244381E-07"  F=POINT
ZONE T="   0.245279E-07"  F=POINT
ZONE T="   0.247074E-07"  F=POINT
ZONE T="   0.248152E-07"  F=POINT
ZONE T="   0.250307E-07"  F=POINT
ZONE T="   0.251600E-07"  F=POINT
ZONE T="   0.252376E-07"  F=POINT
ZONE T="   0.252841E-07"  F=POINT
ZONE T="   0.253772E-07"  F=POINT
ZONE T="   0.254331E-07"  F=POINT
ZONE T="   0.254666E-07"  F=POINT
ZONE T="   0.255336E-07"  F=POINT
ZONE T="   0.256677E-07"  F=POINT
ZONE T="   0.257481E-07"  F=POINT